LAMMPS data file for water

3 atoms
2 bonds
1 angles
0 dihedrals
0 impropers

2 atom types
1 bond types
1 angle types
0 dihedral types
0 improper types

0.0 4.9325 xlo xhi
0.0 4.9325 ylo yhi
0.0 4.9325 zlo zhi

Masses

1 15.9994
2 1.008

Pair Coeffs

1 0.102 3.188
2 0.000 0.000

Bond Coeffs

1 450 0.9572

Angle Coeffs

1 55.0 104.52

Atoms

1 0 1 -0.83400 2.17919 0.196156 4.15513
2 0 2 0.41700  2.29785 4.8353 0.126003
3 0 2 0.41700 1.82037 1.07996 4.23498

Bonds

1 1 1 2
2 1 1 3

Angles

1 1 2 1 3
